 Gaussian 16, Revision C.01,
 Gaussian 16:  ES64L-G16RevC.01  3-Jul-2019

 ---------------------------------------------------
 #p opt freq td(NStates=20,Root=1) b3lyp/6-311g(d,p)
 ---------------------------------------------------

 -----------------------------
 phenothiazine-pyrene_0 S1 opt
 -----------------------------
 Symbolic Z-matrix:
 Charge =  0 Multiplicity = 1

 SCF Done:  E(RB3LYP) =  -1529.27027328     A.U. after   17 cycles
 Total Energy, E(TD-HF/TD-DFT) =  -1529.20640605
 SCF Done:  E(RB3LYP) =  -1529.45187218     A.U. after   14 cycles
 Total Energy, E(TD-HF/TD-DFT) =  -1529.38489383
 SCF Done:  E(RB3LYP) =  -1529.70569131     A.U. after   14 cycles
 Total Energy, E(TD-HF/TD-DFT) =  -1529.63224195
 SCF Done:  E(RB3LYP) =  -1529.90410003     A.U. after   15 cycles
 Total Energy, E(TD-HF/TD-DFT) =  -1529.81906483
 SCF Done:  E(RB3LYP) =  -1530.12372421     A.U. after   13 cycles
 Total Energy, E(TD-HF/TD-DFT) =  -1530.03715906
 SCF Done:  E(RB3LYP) =  -1530.35016315     A.U. after   13 cycles
 Total Energy, E(TD-HF/TD-DFT) =  -1530.26139989
 SCF Done:  E(RB3LYP) =  -1530.37193153     A.U. after   13 cycles
 Total Energy, E(TD-HF/TD-DFT) =  -1530.29083900
 SCF Done:  E(RB3LYP) =  -1530.36794030     A.U. after   13 cycles
 Total Energy, E(TD-HF/TD-DFT) =  -1530.28995007
 SCF Done:  E(RB3LYP) =  -1530.37216230     A.U. after   11 cycles
 Total Energy, E(TD-HF/TD-DFT) =  -1530.29346483
 SCF Done:  E(RB3LYP) =  -1530.37209271     A.U. after   11 cycles
 Total Energy, E(TD-HF/TD-DFT) =  -1530.29407726
 SCF Done:  E(RB3LYP) =  -1530.37146874     A.U. after    9 cycles
 Total Energy, E(TD-HF/TD-DFT) =  -1530.29409162
 SCF Done:  E(RB3LYP) =  -1530.37101777     A.U. after    9 cycles
 Total Energy, E(TD-HF/TD-DFT) =  -1530.29416273
 SCF Done:  E(RB3LYP) =  -1530.37052678     A.U. after    9 cycles
 Total Energy, E(TD-HF/TD-DFT) =  -1530.29418548
 SCF Done:  E(RB3LYP) =  -1530.37025940     A.U. after    8 cycles
 Total Energy, E(TD-HF/TD-DFT) =  -1530.29418927
 SCF Done:  E(RB3LYP) =  -1530.37025019     A.U. after    7 cycles
 Total Energy, E(TD-HF/TD-DFT) =  -1530.29419100
 Optimization completed.
    -- Stationary point found.
 Normal termination of Gaussian 16 at Tue Nov  8 22:49:51 2022.

 ----------------------------------------------------------------------
 #P Geom=AllCheck Guess=TCheck SCRF=Check GenChk RB3LYP TD(FC,Read)/6-3
 11G(d,p) Freq
 ----------------------------------------------------------------------

 Structure from the checkpoint file:  "phenothiazine-pyrene_0_C0S1.chk"
 -----------------------------
 phenothiazine-pyrene_0 S1 opt
 -----------------------------
 Charge =  0 Multiplicity = 1

                         Standard orientation:
 ---------------------------------------------------------------------
 Center     Atomic      Atomic             Coordinates (Angstroms)
 Number     Number       Type             X           Y           Z
 ---------------------------------------------------------------------
      1          6           0        0.000000    3.753739    4.120336
      2          6           0        0.000000    3.720543    2.728573
      3          6           0        0.000000    2.531709    2.025223
      4          6           0        0.000000    1.229955    2.585358
      5          6           0        0.000000    1.325729    4.021224
      6          6           0        0.000000    2.535657    4.746028
      7         16           0       -0.000000   -0.000000    5.108598
      8          6           0       -0.000000   -1.325729    4.021224
      9          6           0       -0.000000   -2.535657    4.746028
     10          6           0       -0.000000   -3.753739    4.120336
     11          6           0       -0.000000   -3.720543    2.728573
     12          6           0       -0.000000   -2.531709    2.025223
     13          6           0       -0.000000   -1.229955    2.585358
     14          7           0       -0.000000   -0.000000    1.836663
     15          6           0       -0.000000   -0.000000    0.186344
     16          6           0        0.000000   -1.179694   -0.571463
     17          6           0        0.000000   -1.206379   -2.004490
     18          6           0        0.000000   -2.425805   -2.722585
     19          6           0        0.000000   -2.441659   -4.105982
     20          6           0        0.000000   -1.245314   -4.867630
     21          6           0        0.000000   -1.216029   -6.287904
     22          6           0        0.000000    0.000000   -6.962553
     23          6           0        0.000000    1.216029   -6.287904
     24          6           0        0.000000    1.245314   -4.867630
     25          6           0        0.000000    2.441659   -4.105982
     26          6           0        0.000000    2.425805   -2.722585
     27          6           0        0.000000    1.206379   -2.004490
     28          6           0        0.000000    1.179694   -0.571463
     29          6           0        0.000000    0.000000   -2.740494
     30          6           0        0.000000    0.000000   -4.163730
     31          1           0        0.000000    4.680515    4.678355
     32          1           0        0.000000    4.640412    2.156678
     33          1           0        0.000000    2.665686    0.983850
     34          1           0        0.000000    2.472859    5.828926
     35          1           0       -0.000000   -2.472859    5.828926
     36          1           0       -0.000000   -4.680515    4.678355
     37          1           0       -0.000000   -4.640412    2.156678
     38          1           0       -0.000000   -2.665686    0.983850
     39          1           0        0.000000   -2.177888   -0.233019
     40          1           0        0.000000   -3.364251   -2.175460
     41          1           0        0.000000   -3.390700   -4.632732
     42          1           0        0.000000   -2.150425   -6.838169
     43          1           0        0.000000    0.000000   -8.048720
     44          1           0        0.000000    2.150425   -6.838169
     45          1           0        0.000000    3.390700   -4.632732
     46          1           0        0.000000    3.364251   -2.175460
     47          1           0        0.000000    2.177888   -0.233019
 ---------------------------------------------------------------------

 SCF Done:  E(RB3LYP) =  -1530.37025019     A.U. after    1 cycles

 Excitation energies and oscillator strengths:

 Excited State   1:      Singlet-B2     2.0697 eV  599.05 nm  f=0.0036  <S**2>=0.000
     104 ->105         0.70507
 This state for optimization and/or second-order correction.
 Total Energy, E(TD-HF/TD-DFT) =  -1530.29419128
 Copying the excited state density for this state as the 1-particle RhoCI density.

 Excited State   2:      Singlet-B2     3.0420 eV  407.57 nm  f=0.0002  <S**2>=0.000
     104 ->107        -0.70358

 Excited State   3:      Singlet-A1     3.1251 eV  396.73 nm  f=0.1211  <S**2>=0.000
     103 ->105         0.10898
     104 ->106         0.69237

 Excited State   4:      Singlet-A1     3.4290 eV  361.58 nm  f=0.5967  <S**2>=0.000
     101 ->106         0.14418
     103 ->105         0.66899
     104 ->106        -0.10304

 Excited State   5:      Singlet-B2     3.4818 eV  356.09 nm  f=0.0001  <S**2>=0.000
     101 ->105        -0.11011
     102 ->105         0.65478
     103 ->106         0.23318

 Excited State   6:      Singlet-A1     3.6254 eV  341.99 nm  f=0.0022  <S**2>=0.000
     104 ->108         0.69960

 Excited State   7:      Singlet-B2     3.7708 eV  328.80 nm  f=0.0126  <S**2>=0.000
     101 ->105        -0.42658
     102 ->105        -0.22917
     103 ->106         0.47213
     104 ->110        -0.18217

 Excited State   8:      Singlet-A1     3.8131 eV  325.15 nm  f=0.0423  <S**2>=0.000
     104 ->109        -0.68271

 Excited State   9:      Singlet-B2     3.8231 eV  324.30 nm  f=0.0455  <S**2>=0.000
     102 ->105        -0.10650
     102 ->107        -0.19880
     103 ->106         0.14337
     104 ->110         0.62141
     104 ->111        -0.16789

 Excited State  10:      Singlet-B2     4.1827 eV  296.42 nm  f=0.0007  <S**2>=0.000
      98 ->105        -0.33784
     103 ->108         0.61364

 Excited State  11:      Singlet-B1     4.2221 eV  293.65 nm  f=0.0002  <S**2>=0.000
     104 ->112         0.69720

 Excited State  12:      Singlet-B2     4.2673 eV  290.54 nm  f=0.0065  <S**2>=0.000
     102 ->107         0.10875
     104 ->110         0.20775
     104 ->111         0.65448

 Excited State  13:      Singlet-B2     4.3197 eV  287.02 nm  f=0.0059  <S**2>=0.000
      98 ->105        -0.57991
     101 ->105         0.16250
     103 ->106         0.12450
     103 ->108        -0.33295

 Excited State  14:      Singlet-A1     4.4102 eV  281.13 nm  f=0.0001  <S**2>=0.000
     103 ->107         0.70206

 Excited State  15:      Singlet-A1     4.4799 eV  276.76 nm  f=0.0001  <S**2>=0.000
     100 ->105        -0.70313

 Excited State  16:      Singlet-B2     4.5059 eV  275.16 nm  f=0.1288  <S**2>=0.000
      97 ->108        -0.11287
      98 ->105        -0.21105
     101 ->105        -0.49276
     103 ->106        -0.40529

 Excited State  17:      Singlet-A2     4.5132 eV  274.71 nm  f=0.0000  <S**2>=0.000
     104 ->114        -0.67260
     104 ->117         0.18299

 Excited State  18:      Singlet-A1     4.5536 eV  272.28 nm  f=0.2190  <S**2>=0.000
     102 ->106         0.67636
     104 ->113         0.18048

 Excited State  19:      Singlet-A1     4.5931 eV  269.94 nm  f=0.0068  <S**2>=0.000
      99 ->105         0.69610

 Excited State  20:      Singlet-A1     4.7811 eV  259.32 nm  f=0.0531  <S**2>=0.000
      97 ->105        -0.11500
     100 ->107         0.12635
     102 ->106        -0.16032
     103 ->110         0.14902
     104 ->113         0.62238

 The electronic state is 1-A1.
 Alpha  occ. eigenvalues --  -88.85260 -14.38396 -10.26273 -10.24147 -10.24146
 Alpha  occ. eigenvalues --  -10.21168 -10.21168 -10.19997 -10.19996 -10.19750
 Alpha  occ. eigenvalues --  -10.19746 -10.19569 -10.19273 -10.19272 -10.19176
 Alpha  occ. eigenvalues --  -10.19096 -10.19096 -10.19035 -10.19035 -10.18872
 Alpha  occ. eigenvalues --  -10.18865 -10.18663 -10.17663 -10.17663 -10.17149
 Alpha  occ. eigenvalues --  -10.17149 -10.17103 -10.17103 -10.17065 -10.17065
 Alpha  occ. eigenvalues --   -7.94208  -5.90585  -5.90158  -5.89602  -0.95402
 Alpha  occ. eigenvalues --   -0.90874  -0.87270  -0.86653  -0.86060  -0.84643
 Alpha  occ. eigenvalues --   -0.81697  -0.81145  -0.78474  -0.76864  -0.76035
 Alpha  occ. eigenvalues --   -0.75516  -0.75246  -0.73805  -0.72286  -0.68304
 Alpha  occ. eigenvalues --   -0.65307  -0.64673  -0.64541  -0.64027  -0.62618
 Alpha  occ. eigenvalues --   -0.62053  -0.59981  -0.57641  -0.55974  -0.55244
 Alpha  occ. eigenvalues --   -0.53912  -0.53127  -0.51874  -0.51735  -0.50474
 Alpha  occ. eigenvalues --   -0.49695  -0.49117  -0.47566  -0.46575  -0.45618
 Alpha  occ. eigenvalues --   -0.45436  -0.45138  -0.44643  -0.43703  -0.43430
 Alpha  occ. eigenvalues --   -0.42810  -0.42387  -0.42186  -0.41288  -0.40855
 Alpha  occ. eigenvalues --   -0.39958  -0.39728  -0.38988  -0.38710  -0.38187
 Alpha  occ. eigenvalues --   -0.37754  -0.36798  -0.35733  -0.35638  -0.35293
 Alpha  occ. eigenvalues --   -0.34803  -0.34280  -0.32901  -0.32023  -0.31671
 Alpha  occ. eigenvalues --   -0.31157  -0.28969  -0.26836  -0.26751  -0.26251
 Alpha  occ. eigenvalues --   -0.25518  -0.22815  -0.21060  -0.17442
 Alpha virt. eigenvalues --   -0.08231  -0.04356  -0.03248  -0.02621  -0.01258
 Alpha virt. eigenvalues --   -0.01075   0.00058   0.00912   0.01714   0.02657
 Alpha virt. eigenvalues --    0.04303   0.04307   0.04606   0.05427   0.05983

 Mulliken charges:
               1
     1  C   -0.083333
     2  C   -0.088805
     3  C   -0.127567
     4  C    0.307576
     5  C   -0.253557
     6  C   -0.085606
     7  S    0.289039
     8  C   -0.253557
     9  C   -0.085606
    10  C   -0.083333
    11  C   -0.088805
    12  C   -0.127567
    13  C    0.307576
    14  N   -0.725275
    15  C    0.103918
    16  C   -0.045355
    17  C   -0.042301
    18  C   -0.106451
    19  C   -0.043354
    20  C   -0.006266
    21  C   -0.073600
    22  C   -0.073167
    23  C   -0.073600
    24  C   -0.006266
    25  C   -0.043354
    26  C   -0.106451
    27  C   -0.042301
    28  C   -0.045355
    29  C    0.049786
    30  C   -0.045834
    31  H    0.089633
    32  H    0.079474
    33  H    0.151797
    34  H    0.098329
    35  H    0.098329
    36  H    0.089633
    37  H    0.079474
    38  H    0.151797
    39  H    0.130840
    40  H    0.079365
    41  H    0.085348
    42  H    0.086811
    43  H    0.095577
    44  H    0.086811
    45  H    0.085348
    46  H    0.079365
    47  H    0.130840
 Sum of Mulliken charges =  -0.00000

 Dipole moment (field-independent basis, Debye):
    X=              0.0000    Y=             -0.0000    Z=             -3.0190  Tot=              3.0190
 Quadrupole moment (field-independent basis, Debye-Ang):
   XX=           -192.4531   YY=           -155.3908   ZZ=           -162.7286
   XY=              0.0000   XZ=             -0.0000   YZ=              0.0000

  Exact polarizability:     119.350      -0.000     481.006      -0.000      -0.000     631.086
 Approx polarizability:     207.726       0.000     757.406      -0.000       0.000     973.421

 ******    4 imaginary frequencies (negative Signs) ******

                      1                      2                      3
                     A2                     B1                     A2
 Frequencies --   -676.8623              -555.2937               -85.6859
 Red. masses --      1.0511                 1.1120                 3.0974
 Frc consts  --      0.2837                 0.2020                 0.0134
 IR Inten    --      0.0001                 0.1479                 0.0000

                      4                      5                      6
                     B1                     A2                     B1
 Frequencies --    -18.3351                24.5896                28.6755
 Red. masses --      8.0595                 4.9535                 5.6680
 Frc consts  --      0.0016                 0.0018                 0.0027
 IR Inten    --      0.0959                 0.0000                 0.4602

                      7                      8                      9
                     B1                     B2                     A1
 Frequencies --     89.5645                90.4696               159.3396
 Red. masses --      4.7775                 6.0206                 9.1903
 Frc consts  --      0.0226                 0.0290                 0.1375
 IR Inten    --      1.4961                 0.4916                 0.8766

                     10                     11                     12
                     A2                     B1                     B2
 Frequencies --    162.2669               173.8453               179.6698
 Red. masses --      4.6439                 4.9001                 5.1757
 Frc consts  --      0.0720                 0.0873                 0.0984
 IR Inten    --      0.0000                 3.7492                 3.1324

                     13                     14                     15
                     B1                     A2                     B1
 Frequencies --    190.7248               222.0852               231.8130
 Red. masses --      4.8057                 4.2394                 4.7219
 Frc consts  --      0.1030                 0.1232                 0.1495
 IR Inten    --      1.8227                 0.0000                 2.2271

                     16                     17                     18
                     A1                     A2                     B2
 Frequencies --    233.5880               258.3975               350.2096
 Red. masses --      4.7726                 5.2073                 5.1281
 Frc consts  --      0.1534                 0.2049                 0.3706
 IR Inten    --     27.3680                 0.0000                 6.6579

                     19                     20                     21
                     A1                     B1                     A2
 Frequencies --    360.0209               364.4803               385.5315
 Red. masses --      7.2194                 5.2997                 3.3664
 Frc consts  --      0.5513                 0.4148                 0.2948
 IR Inten    --      2.5403                 0.8428                 0.0000

                     22                     23                     24
                     B1                     B2                     A2
 Frequencies --    394.0016               401.0414               418.2123
 Red. masses --      3.9334                 5.5814                 3.2995
 Frc consts  --      0.3598                 0.5289                 0.3400
 IR Inten    --      1.1605                 0.1655                 0.0000

                     25                     26                     27
                     A1                     B1                     B2
 Frequencies --    435.6189               458.4914               468.9135
 Red. masses --      8.8689                 3.3929                10.3274
 Frc consts  --      0.9916                 0.4202                 1.3379
 IR Inten    --      8.7689                11.0688                 3.6331

                     28                     29                     30
                     B2                     B1                     A1
 Frequencies --    480.5848               492.9444               493.9735
 Red. masses --      8.1067                 3.7769                10.0355
 Frc consts  --      1.1032                 0.5407                 1.4428
 IR Inten    --      4.2324                 5.0296                 6.0587

                     31                     32                     33
                     B2                     A2                     A1
 Frequencies --    498.9187               507.3918               528.4381
 Red. masses --      4.4880                 3.5215                 5.1834
 Frc consts  --      0.6582                 0.5342                 0.8528
 IR Inten    --      0.0002                 0.0000                14.1920

                     34                     35                     36
                     ?A                     ?A                     B1
 Frequencies --    535.4869               541.6967               570.6431
 Red. masses --      4.3832                 3.1324                 4.1233
 Frc consts  --      0.7405                 0.5416                 0.7911
 IR Inten    --      2.9962                 0.0001                 6.4879

                     37                     38                     39
                     B2                     A1                     B1
 Frequencies --    573.6491               616.1991               627.4343
 Red. masses --      7.2779                 6.9174                 6.9615
 Frc consts  --      1.4111                 1.5475                 1.6147
 IR Inten    --      0.8144                 0.0469                 0.4553

                     40                     41                     42
                     B2                     A2                     A1
 Frequencies --    642.1519               648.0788               655.0759
 Red. masses --      7.1407                 2.5466                 7.0771
 Frc consts  --      1.7349                 0.6302                 1.7893
 IR Inten    --      7.4380                 0.0000                 3.4217

                     43                     44                     45
                     A2                     B1                     A1
 Frequencies --    670.3943               674.5059               691.4337
 Red. masses --      3.6856                 2.0699                 6.6335
 Frc consts  --      0.9759                 0.5548                 1.8685
 IR Inten    --      0.0000                37.9506                 0.5293

                     46                     47                     48
                     A1                     B1                     B1
 Frequencies --    700.8275               713.5139               720.9970
 Red. masses --      7.3070                 2.4191                 1.2407
 Frc consts  --      2.1145                 0.7256                 0.3800
 IR Inten    --      8.5133                34.7137                 4.9265

                     49                     50                     51
                     ?B                     ?B                     B1
 Frequencies --    741.7103               741.8540               754.7660
 Red. masses --      6.1802                 2.4345                 2.4395
 Frc consts  --      2.0032                 0.7894                 0.8188
 IR Inten    --      0.4121                 0.0000                84.0311

                     52                     53                     54
                     A2                     B2                     B1
 Frequencies --    768.0870               790.0450               805.3289
 Red. masses --      1.3539                 6.1364                 1.6970
 Frc consts  --      0.4706                 2.2567                 0.6485
 IR Inten    --      0.0000                 1.1897                90.8323

                     55                     56                     57
                     A2                     B1                     A2
 Frequencies --    808.0142               812.4884               813.2516
 Red. masses --      1.4880                 1.6174                 1.4523
 Frc consts  --      0.5724                 0.6291                 0.5659
 IR Inten    --      0.0000                13.8307                 0.0001

                     58                     59                     60
                     A1                     A1                     B1
 Frequencies --    814.4347               829.3804               856.0121
 Red. masses --      6.0936                 4.7752                 8.0479
 Frc consts  --      2.3814                 1.9353                 3.4745
 IR Inten    --     43.2841                 2.4118                 0.8055

                     61                     62                     63
                     A1                     B2                     A2
 Frequencies --    857.3901               890.0561               894.4982
 Red. masses --      6.8308                 6.7392                 1.3025
 Frc consts  --      2.9585                 3.1455                 0.6140
 IR Inten    --      0.2024                 9.6600                 0.0000

                     64                     65                     66
                     B1                     A2                     B1
 Frequencies --    903.8268               943.0911               943.7292
 Red. masses --      1.3354                 1.3383                 1.3337
 Frc consts  --      0.6427                 0.7013                 0.6998
 IR Inten    --      0.8889                 0.0000                 0.1786

                     67                     68                     69
                     B1                     A2                     B1
 Frequencies --    956.3169               997.2012               997.5633
 Red. masses --      1.2777                 1.3423                 1.3396
 Frc consts  --      0.6884                 0.7865                 0.7854
 IR Inten    --      0.0744                 0.0000                 0.1270

                     70                     71                     72
                     A1                     B2                     A1
 Frequencies --    998.1990              1001.4944              1036.6436
 Red. masses --      6.3419                 4.3546                 1.8871
 Frc consts  --      3.7231                 2.5733                 1.1948
 IR Inten    --    199.4543                 2.3971                71.6176

                     73                     74                     75
                     B2                     B2                     A1
 Frequencies --   1057.5310              1075.3702              1088.4760
 Red. masses --      4.6419                 2.2340                 2.2092
 Frc consts  --      3.0587                 1.5221                 1.5421
 IR Inten    --      7.0684                 3.7550                 9.2512

                     76                     77                     78
                     B2                     A1                     A1
 Frequencies --   1099.5052              1108.0026              1135.1049
 Red. masses --      3.9621                 2.8964                 4.7347
 Frc consts  --      2.8221                 2.0950                 3.5943
 IR Inten    --     13.4412                12.4799                 0.1310

                     79                     80                     81
                     B2                     A1                     B2
 Frequencies --   1139.4770              1152.3959              1169.6344
 Red. masses --      1.7893                 1.3617                 1.5267
 Frc consts  --      1.3688                 1.0655                 1.2306
 IR Inten    --      0.4337                 0.0138                15.6769

                     82                     83                     84
                     A1                     B2                     ?A
 Frequencies --   1173.8496              1176.0483              1192.2398
 Red. masses --      1.9851                 1.5546                 1.3549
 Frc consts  --      1.6116                 1.2669                 1.1347
 IR Inten    --      2.9462                 1.7903                28.4161

                     85                     86                     87
                     ?A                     B2                     A1
 Frequencies --   1192.7413              1204.1820              1212.7519
 Red. masses --      1.9203                 1.5159                 1.4445
 Frc consts  --      1.6096                 1.2951                 1.2517
 IR Inten    --      0.1011                 0.3059                 9.4527

                     88                     89                     90
                     B2                     B2                     A1
 Frequencies --   1231.2289              1242.4280              1259.4391
 Red. masses --      2.1708                 2.0635                 1.8764
 Frc consts  --      1.9388                 1.8767                 1.7536
 IR Inten    --      0.1133                 7.6531                 8.8848

                     91                     92                     93
                     A1                     B2                     B2
 Frequencies --   1286.7568              1287.4182              1294.2088
 Red. masses --      1.8302                 5.2102                 4.9157
 Frc consts  --      1.7854                 5.0879                 4.8511
 IR Inten    --      6.0647                14.7930                 6.4715

                     94                     95                     96
                     ?A                     ?A                     A1
 Frequencies --   1324.2956              1327.0983              1335.8974
 Red. masses --      6.5509                 9.1676                 2.6182
 Frc consts  --      6.7689                 9.5128                 2.7529
 IR Inten    --     81.5833               247.0877                 6.6758

                     97                     98                     99
                     B2                     A1                     B2
 Frequencies --   1351.5149              1355.9416              1379.9276
 Red. masses --      3.9845                 3.6247                 2.8660
 Frc consts  --      4.2881                 3.9265                 3.2154
 IR Inten    --     46.6561                15.7357                44.3103

                    100                    101                    102
                     B2                     A1                     B2
 Frequencies --   1402.0584              1404.9545              1443.4692
 Red. masses --      2.1581                 6.3539                 1.8862
 Frc consts  --      2.4995                 7.3895                 2.3156
 IR Inten    --     25.9737                45.0107                 0.3140

                    103                    104                    105
                     A1                     B2                     A1
 Frequencies --   1453.3695              1463.3019              1480.2342
 Red. masses --      2.2461                 1.9015                 3.7929
 Frc consts  --      2.7953                 2.3989                 4.8965
 IR Inten    --    177.6269                 1.3182                41.1624

                    106                    107                    108
                     A1                     B2                     A1
 Frequencies --   1482.6930              1494.0162              1507.9820
 Red. masses --      2.2908                 1.9233                 3.6369
 Frc consts  --      2.9672                 2.5293                 4.8728
 IR Inten    --      6.7645                 7.2588               113.8149

                    109                    110                    111
                     B2                     A1                     A1
 Frequencies --   1512.5610              1562.9101              1573.0489
 Red. masses --      2.6403                 3.9478                 2.1724
 Frc consts  --      3.5590                 5.6817                 3.1671
 IR Inten    --      1.1036               202.8772                 1.9459

                    112                    113                    114
                     B2                     B2                     A1
 Frequencies --   1577.7692              1586.0967              1612.4293
 Red. masses --      6.1024                 4.7962                 3.3706
 Frc consts  --      8.9503                 7.1090                 5.1632
 IR Inten    --     71.9258                 0.1498                 4.3512

                    115                    116                    117
                     B2                     B2                     A1
 Frequencies --   1615.2367              1632.6250              1644.7553
 Red. masses --      3.1343                 4.7786                 5.3424
 Frc consts  --      4.8180                 7.5045                 8.5151
 IR Inten    --     54.7394                14.6120                 0.3150

                    118                    119                    120
                     A1                     A1                     B2
 Frequencies --   1648.5523              3135.0690              3135.3548
 Red. masses --      6.6236                 1.0849                 1.0858
 Frc consts  --     10.6060                 6.2824                 6.2887
 IR Inten    --     78.4955                47.0099                11.4705

                    121                    122                    123
                     A1                     B2                     A1
 Frequencies --   3141.6314              3158.6564              3159.9630
 Red. masses --      1.0852                 1.0921                 1.0927
 Frc consts  --      6.3105                 6.4195                 6.4289
 IR Inten    --     23.7886                27.2701                 0.8636

                    124                    125                    126
                     B2                     A1                     B2
 Frequencies --   3164.2793              3165.5773              3165.7106
 Red. masses --      1.0891                 1.0898                 1.0896
 Frc consts  --      6.4252                 6.4343                 6.4337
 IR Inten    --     61.8487                 0.7706                 0.1010

                    127                    128                    129
                     A1                     ?A                     ?A
 Frequencies --   3173.6703              3189.7282              3189.7354
 Red. masses --      1.0948                 1.0900                 1.0900
 Frc consts  --      6.4971                 6.5342                 6.5342
 IR Inten    --     72.6780                 5.4105                 4.9034

                    130                    131                    132
                     ?A                     ?A                     B2
 Frequencies --   3212.1930              3212.2450              3454.7911
 Red. masses --      1.0976                 1.0976                 1.0906
 Frc consts  --      6.6725                 6.6729                 7.6696
 IR Inten    --     12.4468                 4.2505                 0.0059

                    133                    134                    135
                     A1                     B2                     A1
 Frequencies --   3456.9909              3608.9365              3609.9329
 Red. masses --      1.0934                 1.0700                 1.0703
 Frc consts  --      7.6986                 8.2113                 8.2176
 IR Inten    --     52.5218                21.9445               170.1247

 - Thermochemistry -
 -------------------
 Temperature   298.150 Kelvin.  Pressure   1.00000 Atm.
 Atom     1 has atomic number  6 and mass  12.00000

 Molecular mass:   399.10817 amu.
 Principal axes and moments of inertia in atomic units:
                           1         2         3
     Eigenvalues --  5933.12593********************
           X            0.00000   0.00000   1.00000
           Y            0.00000   1.00000  -0.00000
           Z            1.00000  -0.00000   0.00000
 This molecule is an asymmetric top.
 Rotational symmetry number  2.
 Warning -- assumption of classical behavior for rotation
           may cause significant error
 Rotational temperatures (Kelvin)      0.01460     0.00399     0.00313
 Rotational constants (GHZ):           0.30418     0.08317     0.06531
    4 imaginary frequencies ignored.
 Zero-point vibrational energy     938513.9 (Joules/Mol)
                                  224.31020 (Kcal/Mol)
 Warning -- explicit consideration of  34 degrees of freedom as
           vibrations may cause significant error
 Vibrational temperatures:     35.38    41.26   128.86   130.17   229.25
          (Kelvin)            233.47   250.12   258.50   274.41   319.53
                              333.53   336.08   371.78   503.87   517.99
                              524.41   554.69   566.88   577.01   601.71
                              626.76   659.67   674.66   691.45   709.24
                              710.72   717.83   730.02   760.30   770.45
                              779.38   821.03   825.35   886.57   902.74
                              923.91   932.44   942.51   964.55   970.46
                              994.82  1008.33  1026.59  1037.35  1067.16
                             1067.36  1085.94  1105.11  1136.70  1158.69
                             1162.55  1168.99  1170.09  1171.79  1193.29
                             1231.61  1233.59  1280.59  1286.98  1300.41
                             1356.90  1357.82  1375.93  1434.75  1435.27
                             1436.19  1440.93  1491.50  1521.55  1547.22
                             1566.07  1581.94  1594.17  1633.16  1639.45
                             1658.04  1682.84  1688.91  1692.07  1715.37
                             1716.09  1732.55  1744.88  1771.46  1787.58
                             1812.05  1851.36  1852.31  1862.08  1905.37
                             1909.40  1922.06  1944.53  1950.90  1985.41
                             2017.25  2021.42  2076.83  2091.07  2105.37
                             2129.73  2133.26  2149.56  2169.65  2176.24
                             2248.68  2263.27  2270.06  2282.04  2319.93
                             2323.97  2348.98  2366.44  2371.90  4510.66
                             4511.08  4520.11  4544.60  4546.48  4552.69
                             4554.56  4554.75  4566.20  4589.31  4589.32
                             4621.63  4621.70  4970.67  4973.84  5192.45
                             5193.89

 Zero-point correction=                           0.357461 (Hartree/Particle)
 Thermal correction to Energy=                    0.377223
 Thermal correction to Enthalpy=                  0.378167
 Thermal correction to Gibbs Free Energy=         0.310415
 Sum of electronic and zero-point Energies=          -1529.936730
 Sum of electronic and thermal Energies=             -1529.916968
 Sum of electronic and thermal Enthalpies=           -1529.916024
 Sum of electronic and thermal Free Energies=        -1529.983776

                     E (Thermal)             CV                S
                      KCal/Mol        Cal/Mol-Kelvin    Cal/Mol-Kelvin
 Total                  236.711             86.721            142.596
 Electronic               0.000              0.000              0.000
 Translational            0.889              2.981             43.844
 Rotational               0.889              2.981             35.141
 Vibrational            234.933             80.759             63.611
 Vibration     1          0.593              1.985              6.224
 Vibration     2          0.593              1.984              5.919
 Vibration     3          0.602              1.957              3.670
 Vibration     4          0.602              1.956              3.650
 Vibration     5          0.621              1.892              2.558
 Vibration     6          0.622              1.889              2.523
 Vibration     7          0.627              1.875              2.393
 Vibration     8          0.629              1.867              2.332
 Vibration     9          0.634              1.853              2.221
 Vibration    10          0.648              1.807              1.942
 Vibration    11          0.653              1.792              1.865
 Vibration    12          0.654              1.790              1.851
 Vibration    13          0.667              1.749              1.673
 Vibration    14          0.727              1.575              1.165
 Vibration    15          0.735              1.555              1.122
 Vibration    16          0.738              1.545              1.103
 Vibration    17          0.754              1.501              1.017
 Vibration    18          0.761              1.483              0.985
 Vibration    19          0.767              1.468              0.959
 Vibration    20          0.781              1.431              0.898
 Vibration    21          0.796              1.393              0.840
 Vibration    22          0.817              1.342              0.771
 Vibration    23          0.826              1.319              0.741
 Vibration    24          0.837              1.293              0.708
 Vibration    25          0.849              1.266              0.676
 Vibration    26          0.850              1.263              0.673
 Vibration    27          0.854              1.252              0.661
 Vibration    28          0.863              1.234              0.640
 Vibration    29          0.883              1.187              0.591
 Vibration    30          0.890              1.172              0.575
 Vibration    31          0.897              1.158              0.562
 Vibration    32          0.927              1.095              0.503
 Vibration    33          0.930              1.088              0.497
 Vibration    34          0.976              0.998              0.423

                           ! Non-Optimized Parameters !
 Normal termination of Gaussian 16 at Tue Nov  8 23:38:42 2022.
